23
	Energy:      21.7860341
C         -1.77924       -1.74738        0.94908
C         -0.76234       -1.15850       -0.01796
H         -1.09799       -1.31886       -1.04888
C         -0.61416        0.36433        0.17450
O         -1.47859        1.10358        0.63692
N          0.55780        0.86995       -0.33710
C          1.05483        2.21622       -0.03147
H          0.92013        2.37699        1.04531
C          2.54468        2.28785       -0.36190
C          0.30936        3.37013       -0.74194
O          0.85081        4.40349       -1.11679
O         -1.03453        3.22985       -0.80661
N          0.56302       -1.80058        0.14936
H         -2.76629       -1.29765        0.79599
H         -1.49415       -1.56286        1.99108
H         -1.87886       -2.82879        0.80744
H          1.24319        0.13549       -0.51666
H          3.10096        1.50818        0.17004
H          2.96942        3.25631       -0.07711
H          2.71762        2.14809       -1.43513
H         -1.35769        2.45123       -0.29395
H          0.46838       -2.79243       -0.07895
H          0.80971       -1.78454        1.14166
