14
	Energy:    1016.0637009
C         -2.02700        0.00000        0.00000
H         -2.55325        0.00000        0.97582
H         -2.45808       -0.88997       -0.48910
H         -2.45808        0.88997       -0.48910
C         -0.66000        0.00000        0.00000
H         -0.81860       -0.00000        1.07406
C          0.66000        0.00000        0.00000
H          0.81860        0.00000       -1.07406
C          2.02700        0.00000        0.00000
H          2.45808        0.88997        0.48911
H          2.55326       -0.00000       -0.97582
H          2.45808       -0.88997        0.48911
H          0.84236        0.00000        1.07580
H         -0.84236       -0.00000       -1.07580
